version 3
run General-0-20241021-20:38:55-17252
attr configname General
attr datetime 20241021-20:38:55
attr datetimef 20241021-203855
attr experiment General
attr inifile omnetpp.ini
attr iterationvars "$0=3, $1=1, $m=1"
attr iterationvarsd 3/1/m=1
attr iterationvarsf 3,1,m=1-
attr measurement "$0=3, $1=1, $m=1"
attr network Network
attr processid 17252
attr repetition 0
attr replication #0
attr resultdir results
attr runnumber 0
attr seedset 0
itervar m 1
config network Network
config **.queue1.serviceTime 3s
config **.queue2.serviceTime 1s
config **.interArrivalTime "truncnormal(1s, 0.5 * 1s)"

vector 0 Network.queue1 queueLength:vector ETV
attr interpolationmode sample-hold
attr recordingmode vector
attr title "queue length"
vector 1 Network.queue2 queueLength:vector ETV
attr interpolationmode sample-hold
attr recordingmode vector
attr title "queue length"
vector 2 Network.sink lifeTime:vector ETV
attr interpolationmode none
attr recordingmode vector
attr title "lifetime of arrived jobs"
attr unit s
0	0	0	0
0	4	1.915895305323	1
0	6	3.34218064284	2
0	7	3.473504914117	1
0	12	4.702123997495	2
0	14	5.327626371071	3
0	16	5.789047511771	4
0	17	6.473504914117	3
0	20	6.631203310435	4
0	24	8.619367724468	5
0	26	9.436716755107	6
0	27	9.473504914117	5
0	30	9.949818127659	6
0	34	11.287053367252	7
0	36	11.678438575744	8
0	38	12.172108618296	9
0	39	12.473504914117	8
0	44	13.758946626516	9
0	46	14.658762717608	10
0	47	15.473504914117	9
0	50	15.53129732049	10
0	52	16.462936254795	11
0	56	18.374267142489	12
0	57	18.473504914117	11
0	62	19.925880970209	12
0	63	21.473504914117	11
0	66	21.617696442018	12
0	70	22.899413021306	13
0	72	23.347715693277	14
0	74	23.971415379654	15
0	75	24.473504914117	14
0	78	24.925386430145	15
0	80	25.303558689893	16
0	84	26.033046875836	17
0	86	27.098137750311	18
0	87	27.473504914117	17
0	92	28.575933455179	18
0	94	29.065558682793	19
0	96	30.218211719415	20
0	97	30.473504914117	19
0	100	31.147387364878	20
0	104	32.262518405462	21
0	105	33.473504914117	20
0	108	33.690515924421	21
0	112	34.646771993155	22
0	114	36.055439371208	23
0	115	36.473504914117	22
0	118	37.174506547249	23
0	122	37.650674104217	24
0	123	39.473504914117	23
0	126	39.632524894704	24
0	128	39.912949909001	25
0	132	40.55514567139	26
0	134	41.993357767757	27
0	135	42.473504914117	26
0	140	43.621051485424	27
0	142	44.794121989591	28
0	144	45.370339801768	29
0	145	45.473504914117	28
0	150	46.725596923841	29
1	0	0	0
2	10	4.473504914117	4
2	22	7.473504914117	5.557609608794
2	32	10.473504914117	7.131324271277
2	42	13.473504914117	8.771380916622
2	54	16.473504914117	11.145878543046
2	60	19.473504914117	13.684457402346
2	68	22.473504914117	15.842301603682
2	82	25.473504914117	16.854137189649
2	90	28.473504914117	19.03678815901
2	102	31.473504914117	21.523686786458
2	110	34.473504914117	23.186451546865
2	120	37.473504914117	25.795066338373
2	130	40.473504914117	28.301396295821
2	138	43.473504914117	29.714558287601
2	148	46.473504914117	31.814742196509

